Title: test ldo tran
Date: Tue Sep 10 06:54:15  2024
Plotname: Operating Point
Flags: real
No. Variables: 957
No. Points: 1
Variables:
	0	v(vdd)	voltage
	1	gmbs_m0	notype
	2	gm_m0	notype
	3	gds_m0	notype
	4	vdsat_m0	notype
	5	vth_m0	notype
	6	i(id_m0)	current
	7	ibd_m0	notype
	8	ibs_m0	notype
	9	gbd_m0	notype
	10	gbs_m0	notype
	11	isub_m0	notype
	12	igidl_m0	notype
	13	igisl_m0	notype
	14	igs_m0	notype
	15	igd_m0	notype
	16	igb_m0	notype
	17	igcs_m0	notype
	18	vbs_m0	notype
	19	vgs_m0	notype
	20	vds_m0	notype
	21	cgg_m0	notype
	22	cgs_m0	notype
	23	cgd_m0	notype
	24	cbg_m0	notype
	25	cbd_m0	notype
	26	cbs_m0	notype
	27	cdg_m0	notype
	28	cdd_m0	notype
	29	cds_m0	notype
	30	csg_m0	notype
	31	csd_m0	notype
	32	css_m0	notype
	33	cgb_m0	notype
	34	cdb_m0	notype
	35	csb_m0	notype
	36	cbb_m0	notype
	37	capbd_m0	notype
	38	capbs_m0	notype
	39	gmbs_m1	notype
	40	gm_m1	notype
	41	gds_m1	notype
	42	vdsat_m1	notype
	43	vth_m1	notype
	44	i(id_m1)	current
	45	ibd_m1	notype
	46	ibs_m1	notype
	47	gbd_m1	notype
	48	gbs_m1	notype
	49	isub_m1	notype
	50	igidl_m1	notype
	51	igisl_m1	notype
	52	igs_m1	notype
	53	igd_m1	notype
	54	igb_m1	notype
	55	igcs_m1	notype
	56	vbs_m1	notype
	57	vgs_m1	notype
	58	vds_m1	notype
	59	cgg_m1	notype
	60	cgs_m1	notype
	61	cgd_m1	notype
	62	cbg_m1	notype
	63	cbd_m1	notype
	64	cbs_m1	notype
	65	cdg_m1	notype
	66	cdd_m1	notype
	67	cds_m1	notype
	68	csg_m1	notype
	69	csd_m1	notype
	70	css_m1	notype
	71	cgb_m1	notype
	72	cdb_m1	notype
	73	csb_m1	notype
	74	cbb_m1	notype
	75	capbd_m1	notype
	76	capbs_m1	notype
	77	gmbs_m2	notype
	78	gm_m2	notype
	79	gds_m2	notype
	80	vdsat_m2	notype
	81	vth_m2	notype
	82	i(id_m2)	current
	83	ibd_m2	notype
	84	ibs_m2	notype
	85	gbd_m2	notype
	86	gbs_m2	notype
	87	isub_m2	notype
	88	igidl_m2	notype
	89	igisl_m2	notype
	90	igs_m2	notype
	91	igd_m2	notype
	92	igb_m2	notype
	93	igcs_m2	notype
	94	vbs_m2	notype
	95	vgs_m2	notype
	96	vds_m2	notype
	97	cgg_m2	notype
	98	cgs_m2	notype
	99	cgd_m2	notype
	100	cbg_m2	notype
	101	cbd_m2	notype
	102	cbs_m2	notype
	103	cdg_m2	notype
	104	cdd_m2	notype
	105	cds_m2	notype
	106	csg_m2	notype
	107	csd_m2	notype
	108	css_m2	notype
	109	cgb_m2	notype
	110	cdb_m2	notype
	111	csb_m2	notype
	112	cbb_m2	notype
	113	capbd_m2	notype
	114	capbs_m2	notype
	115	gmbs_m3	notype
	116	gm_m3	notype
	117	gds_m3	notype
	118	vdsat_m3	notype
	119	vth_m3	notype
	120	i(id_m3)	current
	121	ibd_m3	notype
	122	ibs_m3	notype
	123	gbd_m3	notype
	124	gbs_m3	notype
	125	isub_m3	notype
	126	igidl_m3	notype
	127	igisl_m3	notype
	128	igs_m3	notype
	129	igd_m3	notype
	130	igb_m3	notype
	131	igcs_m3	notype
	132	vbs_m3	notype
	133	vgs_m3	notype
	134	vds_m3	notype
	135	cgg_m3	notype
	136	cgs_m3	notype
	137	cgd_m3	notype
	138	cbg_m3	notype
	139	cbd_m3	notype
	140	cbs_m3	notype
	141	cdg_m3	notype
	142	cdd_m3	notype
	143	cds_m3	notype
	144	csg_m3	notype
	145	csd_m3	notype
	146	css_m3	notype
	147	cgb_m3	notype
	148	cdb_m3	notype
	149	csb_m3	notype
	150	cbb_m3	notype
	151	capbd_m3	notype
	152	capbs_m3	notype
	153	gmbs_m4	notype
	154	gm_m4	notype
	155	gds_m4	notype
	156	vdsat_m4	notype
	157	vth_m4	notype
	158	i(id_m4)	current
	159	ibd_m4	notype
	160	ibs_m4	notype
	161	gbd_m4	notype
	162	gbs_m4	notype
	163	isub_m4	notype
	164	igidl_m4	notype
	165	igisl_m4	notype
	166	igs_m4	notype
	167	igd_m4	notype
	168	igb_m4	notype
	169	igcs_m4	notype
	170	vbs_m4	notype
	171	vgs_m4	notype
	172	vds_m4	notype
	173	cgg_m4	notype
	174	cgs_m4	notype
	175	cgd_m4	notype
	176	cbg_m4	notype
	177	cbd_m4	notype
	178	cbs_m4	notype
	179	cdg_m4	notype
	180	cdd_m4	notype
	181	cds_m4	notype
	182	csg_m4	notype
	183	csd_m4	notype
	184	css_m4	notype
	185	cgb_m4	notype
	186	cdb_m4	notype
	187	csb_m4	notype
	188	cbb_m4	notype
	189	capbd_m4	notype
	190	capbs_m4	notype
	191	gmbs_m5	notype
	192	gm_m5	notype
	193	gds_m5	notype
	194	vdsat_m5	notype
	195	vth_m5	notype
	196	i(id_m5)	current
	197	ibd_m5	notype
	198	ibs_m5	notype
	199	gbd_m5	notype
	200	gbs_m5	notype
	201	isub_m5	notype
	202	igidl_m5	notype
	203	igisl_m5	notype
	204	igs_m5	notype
	205	igd_m5	notype
	206	igb_m5	notype
	207	igcs_m5	notype
	208	vbs_m5	notype
	209	vgs_m5	notype
	210	vds_m5	notype
	211	cgg_m5	notype
	212	cgs_m5	notype
	213	cgd_m5	notype
	214	cbg_m5	notype
	215	cbd_m5	notype
	216	cbs_m5	notype
	217	cdg_m5	notype
	218	cdd_m5	notype
	219	cds_m5	notype
	220	csg_m5	notype
	221	csd_m5	notype
	222	css_m5	notype
	223	cgb_m5	notype
	224	cdb_m5	notype
	225	csb_m5	notype
	226	cbb_m5	notype
	227	capbd_m5	notype
	228	capbs_m5	notype
	229	gmbs_m6	notype
	230	gm_m6	notype
	231	gds_m6	notype
	232	vdsat_m6	notype
	233	vth_m6	notype
	234	i(id_m6)	current
	235	ibd_m6	notype
	236	ibs_m6	notype
	237	gbd_m6	notype
	238	gbs_m6	notype
	239	isub_m6	notype
	240	igidl_m6	notype
	241	igisl_m6	notype
	242	igs_m6	notype
	243	igd_m6	notype
	244	igb_m6	notype
	245	igcs_m6	notype
	246	vbs_m6	notype
	247	vgs_m6	notype
	248	vds_m6	notype
	249	cgg_m6	notype
	250	cgs_m6	notype
	251	cgd_m6	notype
	252	cbg_m6	notype
	253	cbd_m6	notype
	254	cbs_m6	notype
	255	cdg_m6	notype
	256	cdd_m6	notype
	257	cds_m6	notype
	258	csg_m6	notype
	259	csd_m6	notype
	260	css_m6	notype
	261	cgb_m6	notype
	262	cdb_m6	notype
	263	csb_m6	notype
	264	cbb_m6	notype
	265	capbd_m6	notype
	266	capbs_m6	notype
	267	gmbs_m7	notype
	268	gm_m7	notype
	269	gds_m7	notype
	270	vdsat_m7	notype
	271	vth_m7	notype
	272	i(id_m7)	current
	273	ibd_m7	notype
	274	ibs_m7	notype
	275	gbd_m7	notype
	276	gbs_m7	notype
	277	isub_m7	notype
	278	igidl_m7	notype
	279	igisl_m7	notype
	280	igs_m7	notype
	281	igd_m7	notype
	282	igb_m7	notype
	283	igcs_m7	notype
	284	vbs_m7	notype
	285	vgs_m7	notype
	286	vds_m7	notype
	287	cgg_m7	notype
	288	cgs_m7	notype
	289	cgd_m7	notype
	290	cbg_m7	notype
	291	cbd_m7	notype
	292	cbs_m7	notype
	293	cdg_m7	notype
	294	cdd_m7	notype
	295	cds_m7	notype
	296	csg_m7	notype
	297	csd_m7	notype
	298	css_m7	notype
	299	cgb_m7	notype
	300	cdb_m7	notype
	301	csb_m7	notype
	302	cbb_m7	notype
	303	capbd_m7	notype
	304	capbs_m7	notype
	305	gmbs_m8	notype
	306	gm_m8	notype
	307	gds_m8	notype
	308	vdsat_m8	notype
	309	vth_m8	notype
	310	i(id_m8)	current
	311	ibd_m8	notype
	312	ibs_m8	notype
	313	gbd_m8	notype
	314	gbs_m8	notype
	315	isub_m8	notype
	316	igidl_m8	notype
	317	igisl_m8	notype
	318	igs_m8	notype
	319	igd_m8	notype
	320	igb_m8	notype
	321	igcs_m8	notype
	322	vbs_m8	notype
	323	vgs_m8	notype
	324	vds_m8	notype
	325	cgg_m8	notype
	326	cgs_m8	notype
	327	cgd_m8	notype
	328	cbg_m8	notype
	329	cbd_m8	notype
	330	cbs_m8	notype
	331	cdg_m8	notype
	332	cdd_m8	notype
	333	cds_m8	notype
	334	csg_m8	notype
	335	csd_m8	notype
	336	css_m8	notype
	337	cgb_m8	notype
	338	cdb_m8	notype
	339	csb_m8	notype
	340	cbb_m8	notype
	341	capbd_m8	notype
	342	capbs_m8	notype
	343	gmbs_m9	notype
	344	gm_m9	notype
	345	gds_m9	notype
	346	vdsat_m9	notype
	347	vth_m9	notype
	348	i(id_m9)	current
	349	ibd_m9	notype
	350	ibs_m9	notype
	351	gbd_m9	notype
	352	gbs_m9	notype
	353	isub_m9	notype
	354	igidl_m9	notype
	355	igisl_m9	notype
	356	igs_m9	notype
	357	igd_m9	notype
	358	igb_m9	notype
	359	igcs_m9	notype
	360	vbs_m9	notype
	361	vgs_m9	notype
	362	vds_m9	notype
	363	cgg_m9	notype
	364	cgs_m9	notype
	365	cgd_m9	notype
	366	cbg_m9	notype
	367	cbd_m9	notype
	368	cbs_m9	notype
	369	cdg_m9	notype
	370	cdd_m9	notype
	371	cds_m9	notype
	372	csg_m9	notype
	373	csd_m9	notype
	374	css_m9	notype
	375	cgb_m9	notype
	376	cdb_m9	notype
	377	csb_m9	notype
	378	cbb_m9	notype
	379	capbd_m9	notype
	380	capbs_m9	notype
	381	gmbs_m10	notype
	382	gm_m10	notype
	383	gds_m10	notype
	384	vdsat_m10	notype
	385	vth_m10	notype
	386	i(id_m10)	current
	387	ibd_m10	notype
	388	ibs_m10	notype
	389	gbd_m10	notype
	390	gbs_m10	notype
	391	isub_m10	notype
	392	igidl_m10	notype
	393	igisl_m10	notype
	394	igs_m10	notype
	395	igd_m10	notype
	396	igb_m10	notype
	397	igcs_m10	notype
	398	vbs_m10	notype
	399	vgs_m10	notype
	400	vds_m10	notype
	401	cgg_m10	notype
	402	cgs_m10	notype
	403	cgd_m10	notype
	404	cbg_m10	notype
	405	cbd_m10	notype
	406	cbs_m10	notype
	407	cdg_m10	notype
	408	cdd_m10	notype
	409	cds_m10	notype
	410	csg_m10	notype
	411	csd_m10	notype
	412	css_m10	notype
	413	cgb_m10	notype
	414	cdb_m10	notype
	415	csb_m10	notype
	416	cbb_m10	notype
	417	capbd_m10	notype
	418	capbs_m10	notype
	419	gmbs_m24	notype
	420	gm_m24	notype
	421	gds_m24	notype
	422	vdsat_m24	notype
	423	vth_m24	notype
	424	i(id_m24)	current
	425	ibd_m24	notype
	426	ibs_m24	notype
	427	gbd_m24	notype
	428	gbs_m24	notype
	429	isub_m24	notype
	430	igidl_m24	notype
	431	igisl_m24	notype
	432	igs_m24	notype
	433	igd_m24	notype
	434	igb_m24	notype
	435	igcs_m24	notype
	436	vbs_m24	notype
	437	vgs_m24	notype
	438	vds_m24	notype
	439	cgg_m24	notype
	440	cgs_m24	notype
	441	cgd_m24	notype
	442	cbg_m24	notype
	443	cbd_m24	notype
	444	cbs_m24	notype
	445	cdg_m24	notype
	446	cdd_m24	notype
	447	cds_m24	notype
	448	csg_m24	notype
	449	csd_m24	notype
	450	css_m24	notype
	451	cgb_m24	notype
	452	cdb_m24	notype
	453	csb_m24	notype
	454	cbb_m24	notype
	455	capbd_m24	notype
	456	capbs_m24	notype
	457	gmbs_m11	notype
	458	gm_m11	notype
	459	gds_m11	notype
	460	vdsat_m11	notype
	461	vth_m11	notype
	462	i(id_m11)	current
	463	ibd_m11	notype
	464	ibs_m11	notype
	465	gbd_m11	notype
	466	gbs_m11	notype
	467	isub_m11	notype
	468	igidl_m11	notype
	469	igisl_m11	notype
	470	igs_m11	notype
	471	igd_m11	notype
	472	igb_m11	notype
	473	igcs_m11	notype
	474	vbs_m11	notype
	475	vgs_m11	notype
	476	vds_m11	notype
	477	cgg_m11	notype
	478	cgs_m11	notype
	479	cgd_m11	notype
	480	cbg_m11	notype
	481	cbd_m11	notype
	482	cbs_m11	notype
	483	cdg_m11	notype
	484	cdd_m11	notype
	485	cds_m11	notype
	486	csg_m11	notype
	487	csd_m11	notype
	488	css_m11	notype
	489	cgb_m11	notype
	490	cdb_m11	notype
	491	csb_m11	notype
	492	cbb_m11	notype
	493	capbd_m11	notype
	494	capbs_m11	notype
	495	gmbs_m12	notype
	496	gm_m12	notype
	497	gds_m12	notype
	498	vdsat_m12	notype
	499	vth_m12	notype
	500	i(id_m12)	current
	501	ibd_m12	notype
	502	ibs_m12	notype
	503	gbd_m12	notype
	504	gbs_m12	notype
	505	isub_m12	notype
	506	igidl_m12	notype
	507	igisl_m12	notype
	508	igs_m12	notype
	509	igd_m12	notype
	510	igb_m12	notype
	511	igcs_m12	notype
	512	vbs_m12	notype
	513	vgs_m12	notype
	514	vds_m12	notype
	515	cgg_m12	notype
	516	cgs_m12	notype
	517	cgd_m12	notype
	518	cbg_m12	notype
	519	cbd_m12	notype
	520	cbs_m12	notype
	521	cdg_m12	notype
	522	cdd_m12	notype
	523	cds_m12	notype
	524	csg_m12	notype
	525	csd_m12	notype
	526	css_m12	notype
	527	cgb_m12	notype
	528	cdb_m12	notype
	529	csb_m12	notype
	530	cbb_m12	notype
	531	capbd_m12	notype
	532	capbs_m12	notype
	533	gmbs_m13	notype
	534	gm_m13	notype
	535	gds_m13	notype
	536	vdsat_m13	notype
	537	vth_m13	notype
	538	i(id_m13)	current
	539	ibd_m13	notype
	540	ibs_m13	notype
	541	gbd_m13	notype
	542	gbs_m13	notype
	543	isub_m13	notype
	544	igidl_m13	notype
	545	igisl_m13	notype
	546	igs_m13	notype
	547	igd_m13	notype
	548	igb_m13	notype
	549	igcs_m13	notype
	550	vbs_m13	notype
	551	vgs_m13	notype
	552	vds_m13	notype
	553	cgg_m13	notype
	554	cgs_m13	notype
	555	cgd_m13	notype
	556	cbg_m13	notype
	557	cbd_m13	notype
	558	cbs_m13	notype
	559	cdg_m13	notype
	560	cdd_m13	notype
	561	cds_m13	notype
	562	csg_m13	notype
	563	csd_m13	notype
	564	css_m13	notype
	565	cgb_m13	notype
	566	cdb_m13	notype
	567	csb_m13	notype
	568	cbb_m13	notype
	569	capbd_m13	notype
	570	capbs_m13	notype
	571	gmbs_m14	notype
	572	gm_m14	notype
	573	gds_m14	notype
	574	vdsat_m14	notype
	575	vth_m14	notype
	576	i(id_m14)	current
	577	ibd_m14	notype
	578	ibs_m14	notype
	579	gbd_m14	notype
	580	gbs_m14	notype
	581	isub_m14	notype
	582	igidl_m14	notype
	583	igisl_m14	notype
	584	igs_m14	notype
	585	igd_m14	notype
	586	igb_m14	notype
	587	igcs_m14	notype
	588	vbs_m14	notype
	589	vgs_m14	notype
	590	vds_m14	notype
	591	cgg_m14	notype
	592	cgs_m14	notype
	593	cgd_m14	notype
	594	cbg_m14	notype
	595	cbd_m14	notype
	596	cbs_m14	notype
	597	cdg_m14	notype
	598	cdd_m14	notype
	599	cds_m14	notype
	600	csg_m14	notype
	601	csd_m14	notype
	602	css_m14	notype
	603	cgb_m14	notype
	604	cdb_m14	notype
	605	csb_m14	notype
	606	cbb_m14	notype
	607	capbd_m14	notype
	608	capbs_m14	notype
	609	gmbs_m15	notype
	610	gm_m15	notype
	611	gds_m15	notype
	612	vdsat_m15	notype
	613	vth_m15	notype
	614	i(id_m15)	current
	615	ibd_m15	notype
	616	ibs_m15	notype
	617	gbd_m15	notype
	618	gbs_m15	notype
	619	isub_m15	notype
	620	igidl_m15	notype
	621	igisl_m15	notype
	622	igs_m15	notype
	623	igd_m15	notype
	624	igb_m15	notype
	625	igcs_m15	notype
	626	vbs_m15	notype
	627	vgs_m15	notype
	628	vds_m15	notype
	629	cgg_m15	notype
	630	cgs_m15	notype
	631	cgd_m15	notype
	632	cbg_m15	notype
	633	cbd_m15	notype
	634	cbs_m15	notype
	635	cdg_m15	notype
	636	cdd_m15	notype
	637	cds_m15	notype
	638	csg_m15	notype
	639	csd_m15	notype
	640	css_m15	notype
	641	cgb_m15	notype
	642	cdb_m15	notype
	643	csb_m15	notype
	644	cbb_m15	notype
	645	capbd_m15	notype
	646	capbs_m15	notype
	647	gmbs_m16	notype
	648	gm_m16	notype
	649	gds_m16	notype
	650	vdsat_m16	notype
	651	vth_m16	notype
	652	i(id_m16)	current
	653	ibd_m16	notype
	654	ibs_m16	notype
	655	gbd_m16	notype
	656	gbs_m16	notype
	657	isub_m16	notype
	658	igidl_m16	notype
	659	igisl_m16	notype
	660	igs_m16	notype
	661	igd_m16	notype
	662	igb_m16	notype
	663	igcs_m16	notype
	664	vbs_m16	notype
	665	vgs_m16	notype
	666	vds_m16	notype
	667	cgg_m16	notype
	668	cgs_m16	notype
	669	cgd_m16	notype
	670	cbg_m16	notype
	671	cbd_m16	notype
	672	cbs_m16	notype
	673	cdg_m16	notype
	674	cdd_m16	notype
	675	cds_m16	notype
	676	csg_m16	notype
	677	csd_m16	notype
	678	css_m16	notype
	679	cgb_m16	notype
	680	cdb_m16	notype
	681	csb_m16	notype
	682	cbb_m16	notype
	683	capbd_m16	notype
	684	capbs_m16	notype
	685	gmbs_m17	notype
	686	gm_m17	notype
	687	gds_m17	notype
	688	vdsat_m17	notype
	689	vth_m17	notype
	690	i(id_m17)	current
	691	ibd_m17	notype
	692	ibs_m17	notype
	693	gbd_m17	notype
	694	gbs_m17	notype
	695	isub_m17	notype
	696	igidl_m17	notype
	697	igisl_m17	notype
	698	igs_m17	notype
	699	igd_m17	notype
	700	igb_m17	notype
	701	igcs_m17	notype
	702	vbs_m17	notype
	703	vgs_m17	notype
	704	vds_m17	notype
	705	cgg_m17	notype
	706	cgs_m17	notype
	707	cgd_m17	notype
	708	cbg_m17	notype
	709	cbd_m17	notype
	710	cbs_m17	notype
	711	cdg_m17	notype
	712	cdd_m17	notype
	713	cds_m17	notype
	714	csg_m17	notype
	715	csd_m17	notype
	716	css_m17	notype
	717	cgb_m17	notype
	718	cdb_m17	notype
	719	csb_m17	notype
	720	cbb_m17	notype
	721	capbd_m17	notype
	722	capbs_m17	notype
	723	gmbs_m18	notype
	724	gm_m18	notype
	725	gds_m18	notype
	726	vdsat_m18	notype
	727	vth_m18	notype
	728	i(id_m18)	current
	729	ibd_m18	notype
	730	ibs_m18	notype
	731	gbd_m18	notype
	732	gbs_m18	notype
	733	isub_m18	notype
	734	igidl_m18	notype
	735	igisl_m18	notype
	736	igs_m18	notype
	737	igd_m18	notype
	738	igb_m18	notype
	739	igcs_m18	notype
	740	vbs_m18	notype
	741	vgs_m18	notype
	742	vds_m18	notype
	743	cgg_m18	notype
	744	cgs_m18	notype
	745	cgd_m18	notype
	746	cbg_m18	notype
	747	cbd_m18	notype
	748	cbs_m18	notype
	749	cdg_m18	notype
	750	cdd_m18	notype
	751	cds_m18	notype
	752	csg_m18	notype
	753	csd_m18	notype
	754	css_m18	notype
	755	cgb_m18	notype
	756	cdb_m18	notype
	757	csb_m18	notype
	758	cbb_m18	notype
	759	capbd_m18	notype
	760	capbs_m18	notype
	761	gmbs_m19	notype
	762	gm_m19	notype
	763	gds_m19	notype
	764	vdsat_m19	notype
	765	vth_m19	notype
	766	i(id_m19)	current
	767	ibd_m19	notype
	768	ibs_m19	notype
	769	gbd_m19	notype
	770	gbs_m19	notype
	771	isub_m19	notype
	772	igidl_m19	notype
	773	igisl_m19	notype
	774	igs_m19	notype
	775	igd_m19	notype
	776	igb_m19	notype
	777	igcs_m19	notype
	778	vbs_m19	notype
	779	vgs_m19	notype
	780	vds_m19	notype
	781	cgg_m19	notype
	782	cgs_m19	notype
	783	cgd_m19	notype
	784	cbg_m19	notype
	785	cbd_m19	notype
	786	cbs_m19	notype
	787	cdg_m19	notype
	788	cdd_m19	notype
	789	cds_m19	notype
	790	csg_m19	notype
	791	csd_m19	notype
	792	css_m19	notype
	793	cgb_m19	notype
	794	cdb_m19	notype
	795	csb_m19	notype
	796	cbb_m19	notype
	797	capbd_m19	notype
	798	capbs_m19	notype
	799	gmbs_m20	notype
	800	gm_m20	notype
	801	gds_m20	notype
	802	vdsat_m20	notype
	803	vth_m20	notype
	804	i(id_m20)	current
	805	ibd_m20	notype
	806	ibs_m20	notype
	807	gbd_m20	notype
	808	gbs_m20	notype
	809	isub_m20	notype
	810	igidl_m20	notype
	811	igisl_m20	notype
	812	igs_m20	notype
	813	igd_m20	notype
	814	igb_m20	notype
	815	igcs_m20	notype
	816	vbs_m20	notype
	817	vgs_m20	notype
	818	vds_m20	notype
	819	cgg_m20	notype
	820	cgs_m20	notype
	821	cgd_m20	notype
	822	cbg_m20	notype
	823	cbd_m20	notype
	824	cbs_m20	notype
	825	cdg_m20	notype
	826	cdd_m20	notype
	827	cds_m20	notype
	828	csg_m20	notype
	829	csd_m20	notype
	830	css_m20	notype
	831	cgb_m20	notype
	832	cdb_m20	notype
	833	csb_m20	notype
	834	cbb_m20	notype
	835	capbd_m20	notype
	836	capbs_m20	notype
	837	gmbs_m21	notype
	838	gm_m21	notype
	839	gds_m21	notype
	840	vdsat_m21	notype
	841	vth_m21	notype
	842	i(id_m21)	current
	843	ibd_m21	notype
	844	ibs_m21	notype
	845	gbd_m21	notype
	846	gbs_m21	notype
	847	isub_m21	notype
	848	igidl_m21	notype
	849	igisl_m21	notype
	850	igs_m21	notype
	851	igd_m21	notype
	852	igb_m21	notype
	853	igcs_m21	notype
	854	vbs_m21	notype
	855	vgs_m21	notype
	856	vds_m21	notype
	857	cgg_m21	notype
	858	cgs_m21	notype
	859	cgd_m21	notype
	860	cbg_m21	notype
	861	cbd_m21	notype
	862	cbs_m21	notype
	863	cdg_m21	notype
	864	cdd_m21	notype
	865	cds_m21	notype
	866	csg_m21	notype
	867	csd_m21	notype
	868	css_m21	notype
	869	cgb_m21	notype
	870	cdb_m21	notype
	871	csb_m21	notype
	872	cbb_m21	notype
	873	capbd_m21	notype
	874	capbs_m21	notype
	875	gmbs_m22	notype
	876	gm_m22	notype
	877	gds_m22	notype
	878	vdsat_m22	notype
	879	vth_m22	notype
	880	i(id_m22)	current
	881	ibd_m22	notype
	882	ibs_m22	notype
	883	gbd_m22	notype
	884	gbs_m22	notype
	885	isub_m22	notype
	886	igidl_m22	notype
	887	igisl_m22	notype
	888	igs_m22	notype
	889	igd_m22	notype
	890	igb_m22	notype
	891	igcs_m22	notype
	892	vbs_m22	notype
	893	vgs_m22	notype
	894	vds_m22	notype
	895	cgg_m22	notype
	896	cgs_m22	notype
	897	cgd_m22	notype
	898	cbg_m22	notype
	899	cbd_m22	notype
	900	cbs_m22	notype
	901	cdg_m22	notype
	902	cdd_m22	notype
	903	cds_m22	notype
	904	csg_m22	notype
	905	csd_m22	notype
	906	css_m22	notype
	907	cgb_m22	notype
	908	cdb_m22	notype
	909	csb_m22	notype
	910	cbb_m22	notype
	911	capbd_m22	notype
	912	capbs_m22	notype
	913	dc_ib	notype
	914	acmag_ib	notype
	915	acphase_ib	notype
	916	acreal_ib	notype
	917	acimag_ib	notype
	918	v_ib	notype
	919	p_ib	notype
	920	i(current_ib)	current
	921	capacitance_c0	notype
	922	cap_c0	notype
	923	c_c0	notype
	924	ic_c0	notype
	925	temp_c0	notype
	926	dtemp_c0	notype
	927	w_c0	notype
	928	l_c0	notype
	929	m_c0	notype
	930	scale_c0	notype
	931	i(i_c0)	current
	932	p_c0	notype
	933	sens_dc_c0	notype
	934	sens_real_c0	notype
	935	sens_imag_c0	notype
	936	sens_mag_c0	notype
	937	sens_ph_c0	notype
	938	sens_cplx_c0	notype
	939	capacitance_cl	notype
	940	cap_cl	notype
	941	c_cl	notype
	942	ic_cl	notype
	943	temp_cl	notype
	944	dtemp_cl	notype
	945	w_cl	notype
	946	l_cl	notype
	947	m_cl	notype
	948	scale_cl	notype
	949	i(i_cl)	current
	950	p_cl	notype
	951	sens_dc_cl	notype
	952	sens_real_cl	notype
	953	sens_imag_cl	notype
	954	sens_mag_cl	notype
	955	sens_ph_cl	notype
	956	sens_cplx_cl	notype
Values:
 0	1.800000000000000e+00
	1.162932665057330e-05
	4.597002129315591e-05
	4.496049948980909e-08
	1.007202808932822e-01
	9.782133228677066e-01
	3.211279156454558e-06
	-2.801155245248116e-11
	2.247187236292802e-22
	2.700000000000169e-11
	3.465782365970675e-11
	6.110907293290878e-22
	0.000000000000000e+00
	0.000000000000000e+00
	0.000000000000000e+00
	0.000000000000000e+00
	0.000000000000000e+00
	0.000000000000000e+00
	1.296851515064645e-11
	1.027464905679873e+00
	1.027464905679873e+00
	3.991012910762407e-13
	-3.493438505443275e-13
	-5.025015079920804e-17
	-7.824930458091565e-14
	-2.146749298208136e-17
	-5.652587559396307e-14
	-1.284108048660307e-13
	5.692553461269679e-17
	1.624112438214760e-13
	-1.924411816292944e-13
	1.479210916859261e-17
	2.434584823168145e-13
	-4.970719038111406e-14
	-3.405736449005806e-14
	-5.103209279668867e-14
	1.347966476678608e-13
	4.503504120386804e-15
	4.363144341339020e-15
	1.165182485120781e-05
	4.606721228200526e-05
	4.315735679315306e-08
	1.007202808936320e-01
	9.782133228670147e-01
	3.220942404753469e-06
	-3.394349586876443e-11
	2.723081760080959e-22
	2.700000000000000e-11
	3.465782366000498e-11
	4.519695912568180e-20
	1.343539727332146e-53
	0.000000000000000e+00
	0.000000000000000e+00
	0.000000000000000e+00
	0.000000000000000e+00
	0.000000000000000e+00
	1.571476282435924e-11
	1.027464905679873e+00
	1.247166513697228e+00
	3.990561317494667e-13
	-3.493093729668079e-13
	-2.690848632650585e-17
	-7.826859721043329e-14
	-1.149564194706103e-17
	-5.650964829365704e-14
	-1.283596400687710e-13
	3.052777745174138e-17
	1.623709503618537e-13
	-1.924278944702624e-13
	7.876350821825503e-18
	2.434480708986112e-13
	-4.971985029633233e-14
	-3.404183807053440e-14
	-5.102805277917066e-14
	1.347897411460374e-13
	4.160192169305148e-15
	4.363144341343938e-15
	1.165182485120784e-05
	4.606721228200535e-05
	4.315735679315216e-08
	1.007202808936320e-01
	9.782133228670147e-01
	3.220942404753475e-06
	-3.394349586876821e-11
	2.723081760080959e-22
	2.700000000000000e-11
	3.465782366000498e-11
	4.519695912578279e-20
	1.343539727334168e-53
	0.000000000000000e+00
	0.000000000000000e+00
	0.000000000000000e+00
	0.000000000000000e+00
	0.000000000000000e+00
	1.571476282435924e-11
	1.027464905679873e+00
	1.247166513697368e+00
	3.990561317494667e-13
	-3.493093729668079e-13
	-2.690848632649622e-17
	-7.826859721043329e-14
	-1.149564194705693e-17
	-5.650964829365704e-14
	-1.283596400687711e-13
	3.052777745173059e-17
	1.623709503618537e-13
	-1.924278944702624e-13
	7.876350821822565e-18
	2.434480708986112e-13
	-4.971985029633233e-14
	-3.404183807053440e-14
	-5.102805277917066e-14
	1.347897411460374e-13
	4.160192169304946e-15
	4.363144341343938e-15
	1.164664189899842e-05
	4.604477346701765e-05
	4.350731263785617e-08
	1.007202808935533e-01
	9.782133228671780e-01
	3.218691961424357e-06
	-3.254116279232621e-11
	2.610572757966167e-22
	2.700000000000002e-11
	3.465782365993447e-11
	1.901701421514090e-20
	6.699899248729823e-54
	0.000000000000000e+00
	0.000000000000000e+00
	0.000000000000000e+00
	0.000000000000000e+00
	0.000000000000000e+00
	1.506550439955845e-11
	1.027464905679873e+00
	1.195228251605301e+00
	3.990642845164861e-13
	-3.493158868509883e-13
	-3.084105825271805e-17
	-7.826511424632639e-14
	-1.317568586503298e-17
	-5.651270710956980e-14
	-1.283688834928306e-13
	3.497898269512785e-17
	1.623785612830752e-13
	-1.924302867773291e-13
	9.037761422623185e-18
	2.434500326774829e-13
	-4.971755660724501e-14
	-3.404465677293970e-14
	-5.102878366157650e-14
	1.347909970417612e-13
	4.236358540591490e-15
	4.363144341342776e-15
	2.308004709973765e-05
	9.118582709178036e-05
	1.570347177643003e-07
	1.007202808922887e-01
	9.782133228696710e-01
	6.355911656086680e-06
	-2.239169451720804e-11
	1.796303505940955e-22
	5.400015873905469e-11
	6.931564731772267e-11
	1.308781531439122e-27
	0.000000000000000e+00
	0.000000000000000e+00
	0.000000000000000e+00
	0.000000000000000e+00
	0.000000000000000e+00
	0.000000000000000e+00
	5.183409257369931e-12
	1.027464905679873e+00
	4.046611132359030e-01
	8.006944974050861e-13
	-6.995808571262420e-13
	-2.371003924059616e-15
	-1.554340317941172e-13
	-1.012922534370876e-15
	-1.134977509101024e-13
	-2.596133895202184e-13
	2.647649837916982e-15
	3.258832469023934e-13
	-3.856470760907506e-13
	7.362766205135091e-16
	4.871953611339510e-13
	-9.874263635478455e-14
	-6.891750722009196e-14
	-1.022845616637139e-13
	2.699447052385905e-13
	1.180553755906916e-14
	8.726288682650158e-15
	1.162324416156818e-05
	4.594529519005582e-05
	4.493958856643739e-08
	1.006950299057797e-01
	9.782133228677066e-01
	3.209128508746563e-06
	-2.801029018733941e-11
	2.247109898156907e-22
	2.700000000000170e-11
	3.465782365970670e-11
	6.103614110245001e-22
	0.000000000000000e+00
	0.000000000000000e+00
	0.000000000000000e+00
	0.000000000000000e+00
	0.000000000000000e+00
	0.000000000000000e+00
	1.296807106143660e-11
	1.027418155119066e+00
	1.027418155119066e+00
	3.990745395046114e-13
	-3.493092635872058e-13
	-5.024420668871445e-17
	-7.825292631033959e-14
	-2.146495358372581e-17
	-5.652296949380903e-14
	-1.283986503006872e-13
	5.691878930086565e-17
	1.623962431474463e-13
	-1.924229628935845e-13
	1.479037097157461e-17
	2.434359899335685e-13
	-4.971503171071687e-14
	-3.405451163606000e-14
	-5.102781741095548e-14
	1.347973607577324e-13
	4.503583453422221e-15
	4.363144341339019e-15
	1.167871384627238e-05
	4.618576631163176e-05
	4.150086427930389e-08
	1.006950299066799e-01
	9.782133228659251e-01
	3.233366778863372e-06
	-4.326180345094661e-11
	3.470630982604916e-22
	2.700000000000000e-11
	3.465782366047345e-11
	3.204562015009601e-18
	4.045427532698315e-21
	0.000000000000000e+00
	0.000000000000000e+00
	0.000000000000000e+00
	0.000000000000000e+00
	0.000000000000000e+00
	2.002886745344767e-11
	1.027418155119066e+00
	1.592289016751798e+00
	3.989957740426397e-13
	-3.492462068666336e-13
	-1.237153811629300e-17
	-7.828657590155600e-14
	-5.285275834322318e-18
	-5.649336184471002e-14
	-1.283093477966225e-13
	1.405589843761813e-17
	1.623225645771108e-13
	-1.923998503444612e-13
	3.600915512997188e-18
	2.434170041342328e-13
	-4.973719563788985e-14
	-3.402727267892584e-14
	-5.102075470528465e-14
	1.347852230221004e-13
	3.718271851957957e-15
	4.363144341351663e-15
	1.165266427865646e-05
	4.607084893305774e-05
	4.310367360429893e-08
	1.007202808936460e-01
	9.782133228669878e-01
	3.221308102991640e-06
	-3.417242589086597e-11
	2.741474447454095e-22
	2.700000000000000e-11
	3.465782366001650e-11
	5.168556624530903e-20
	3.996793016408601e-53
	0.000000000000000e+00
	0.000000000000000e+00
	0.000000000000000e+00
	0.000000000000000e+00
	0.000000000000000e+00
	1.582090014551341e-11
	1.027464905679873e+00
	1.255645403404958e+00
	3.990549094126515e-13
	-3.493083838364162e-13
	-2.633103530041474e-17
	-7.826911940801973e-14
	-1.124894764559265e-17
	-5.650918410263563e-14
	-1.283582539417357e-13
	2.987402150276520e-17
	1.623697947079583e-13
	-1.924275360628961e-13
	7.705961443242191e-18
	2.434477732310936e-13
	-4.972019454093483e-14
	-3.404141478772528e-14
	-5.102794312964085e-14
	1.347895524583010e-13
	4.148027326763473e-15
	4.363144341344128e-15
	1.379122760191029e-05
	5.265579658480179e-05
	6.174391241197628e-08
	8.660000495817124e-02
	9.848154485714259e-01
	3.292433424433984e-06
	-1.893523537757850e-11
	1.603662580507148e-22
	1.400000000000000e-11
	1.797072337938197e-11
	5.271437922193125e-13
	5.794419158586555e-35
	0.000000000000000e+00
	0.000000000000000e+00
	0.000000000000000e+00
	0.000000000000000e+00
	0.000000000000000e+00
	1.784794534387402e-11
	9.998306480493322e-01
	1.342516812726915e+00
	1.032062150484192e-13
	-8.756118428599743e-14
	-4.458673320237513e-18
	-2.279806916770968e-14
	-2.111388573340674e-18
	-1.468171514892408e-14
	-3.217216580864260e-14
	5.229475539233242e-18
	4.090627719525597e-14
	-4.823598007206695e-14
	1.340586354344945e-18
	6.133662223966553e-14
	-1.564057208910157e-14
	-8.739340862152607e-15
	-1.310198275395293e-14
	3.748189570520710e-14
	2.695318828307514e-15
	2.919927516762244e-15
	1.296501087631573e-05
	4.943493187718623e-05
	5.771249136504926e-08
	8.454158542131122e-02
	9.848154480384187e-01
	3.063461656270453e-06
	-1.899597826171934e-11
	1.605577804042468e-22
	1.400000000000000e-11
	1.797072337938317e-11
	5.089113796559896e-13
	4.514269913997704e-34
	0.000000000000000e+00
	0.000000000000000e+00
	0.000000000000000e+00
	0.000000000000000e+00
	0.000000000000000e+00
	1.786926162594682e-11
	9.953388867640971e-01
	1.346855590165666e+00
	1.024300312716838e-13
	-8.655016009458489e-14
	-4.302559996558064e-18
	-2.291123311731176e-14
	-2.037513146766465e-18
	-1.458336563574669e-14
	-3.181621537490988e-14
	5.046649963846127e-18
	4.046234104994934e-14
	-4.770258277946212e-14
	1.293423179478401e-18
	6.067118468038224e-14
	-1.587556861710230e-14
	-8.651172325003306e-15
	-1.296989532409960e-14
	3.749663626620521e-14
	2.691418312693826e-15
	2.919927516762270e-15
	1.522833015375734e-05
	5.590975312460215e-05
	5.267313668545521e-06
	6.231681505663107e-02
	4.550939933374456e-01
	3.217132248139102e-06
	-3.279741149591511e-12
	2.631121320817442e-23
	2.732054119437335e-11
	3.465782365846337e-11
	8.491362433686940e-29
	0.000000000000000e+00
	0.000000000000000e+00
	0.000000000000000e+00
	0.000000000000000e+00
	0.000000000000000e+00
	0.000000000000000e+00
	1.518452030779827e-12
	4.334490017205636e-01
	1.118904744483693e-01
	8.429047571594182e-13
	-2.753227114156762e-13
	-5.711949034543593e-15
	-5.648736097041989e-13
	-3.695997621868082e-15
	-9.042033097911493e-14
	-1.137192283627174e-13
	7.144502282444187e-15
	1.463841059571777e-13
	-1.643119190925020e-13
	2.263444373967488e-15
	2.193589364376135e-13
	-5.618700967091985e-13
	-3.980937987690444e-14
	-5.731046171907890e-14
	6.589899383051818e-13
	3.627111049937003e-14
	2.401016720022467e-14
	1.164296569754591e-05
	4.602887453628169e-05
	4.377647564733536e-08
	1.007202808934921e-01
	9.782133228672926e-01
	3.217103974411020e-06
	-3.155868040485712e-11
	2.531769993652233e-22
	2.700000000000004e-11
	3.465782365988509e-11
	9.872339774786237e-21
	2.828909945990430e-54
	0.000000000000000e+00
	0.000000000000000e+00
	0.000000000000000e+00
	0.000000000000000e+00
	0.000000000000000e+00
	1.461075704867199e-11
	1.027464905679873e+00
	1.158840015031235e+00
	3.990707664062607e-13
	-3.493209670609656e-13
	-3.406355786439607e-17
	-7.826234510189566e-14
	-1.455237800820259e-17
	-5.651509497667232e-14
	-1.283762303611049e-13
	3.862521937666924e-17
	1.623844975935032e-13
	-1.924321909432601e-13
	9.990716495929411e-18
	2.434515644441347e-13
	-4.971573578743070e-14
	-3.404689245177492e-14
	-5.102936421737057e-14
	1.347919924565762e-13
	4.291472089026528e-15
	4.363144341341961e-15
	1.451664448571790e-02
	5.498493123150007e-02
	1.465109259055111e-03
	1.512045721299650e-01
	1.033397205906742e+00
	5.003954866035973e-03